LAMMPS data file

        71 atoms
         1 atom types

  0.000000000000  12.481643676757812  xlo xhi
  0.000000000000  12.481643676757812  ylo yhi
  0.000000000000   8.321096420288086  zlo zhi

Masses

  1  107.870

Atoms

  1   1   0.11242217  12.24453021   4.12897776 
  2   1   0.36315343   4.24378392   8.05309846 
  3   1   0.09350000   4.53738964   4.32830962 
  4   1   0.12334361   8.60226167   8.11770345 
  5   1  12.32247808   8.66043862   4.32352499 
  6   1   4.25720169  12.47427983   8.08198931 
  7   1   4.38632430  12.20491347   4.04244668 
  8   1   4.34036688   3.75070906   8.10783463 
  9   1   4.34283825   3.99733386   3.91867870 
 10   1   4.12445941   8.22789972   8.22667652 
 11   1   4.07061359   8.26218680   4.16693028 
 12   1   8.12788431   0.01024743   8.27088651 
 13   1   8.35089384   0.03190308   3.90475751 
 14   1   8.32239825   4.43068406   8.19341710 
 15   1   8.36389972   4.12775456   4.23240899 
 16   1   7.94591442   8.02373747   0.21571609 
 17   1   8.39819928   8.16174701   4.16138843 
 18   1   0.08146769   1.76450505   1.76049428 
 19   1  12.37557499   1.61878186   6.91332466 
 20   1  12.37370274   6.40096149   2.34843796 
 21   1   0.26598383   6.20376400   6.27318274 
 22   1  12.23777764  10.32333060   1.80113451 
 23   1  11.98501187  10.62164189   6.14582837 
 24   1   4.25224648   1.77632517   2.04099011 
 25   1   4.04305412   1.93827450   6.02563846 
 26   1   4.10349024   6.03138001   2.12452559 
 27   1   4.05839406   6.46582860   6.33033203 
 28   1   4.18906440  10.35614484   2.30594212 
 29   1   4.21108202  10.20385630   5.82870308 
 30   1   8.29402747   2.36949033   1.95736309 
 31   1   8.44290852   2.41931706   6.37431734 
 32   1   8.02482338   5.90385506   2.18983787 
 33   1   8.37392248   6.33575738   6.59337020 
 34   1   8.30841881  10.36272267   1.91240421 
 35   1   8.27982336  10.41694293   6.37955963 
 36   1   1.71865997  12.01166018   1.87596613 
 37   1   2.26254761   0.00634068   6.07572313 
 38   1   2.16778697   3.82280303   2.01932197 
 39   1   2.44653952   4.10038232   6.17501877 
 40   1   2.02324953   8.77780351   1.98577131 
 41   1   2.12948080   8.20337329   6.21814701 
 42   1   6.38544681   0.07311747   2.06948154 
 43   1   6.39827794   0.00436858   5.96593459 
 44   1   6.11667957   4.19031256   1.89381488 
 45   1   6.36235577   4.24412093   6.20271138 
 46   1   6.02844683   8.38389531   2.07117072 
 47   1   6.26582273   8.10464349   6.36471480 
 48   1  10.40854278   0.18952128   2.04297885 
 49   1  10.31418156   0.19408956   6.24642210 
 50   1  10.47337244   4.31496674   2.21783004 
 51   1  10.70424541   4.24335955   6.26847300 
 52   1  10.34969183   8.36639605   1.96051679 
 53   1  10.17633428   8.53291366   6.45958361 
 54   1   2.31356009   1.78387656   0.18031815 
 55   1   1.57553296   2.16336846   4.60901347 
 56   1   1.96942868   6.34092478   0.29718794 
 57   1   2.11986994   6.40334549   4.18940556 
 58   1   1.95707185  10.39496276   8.00966234 
 59   1   1.90044263  10.32920946   4.26149954 
 60   1   6.21544682   2.02021649   0.10769995 
 61   1   6.34503125   2.19711883   4.10867429 
 62   1   5.87865462   6.14266635   8.24543227 
 63   1   5.98089176   6.33192552   4.27024501 
 64   1   6.02971996  10.23579683   0.03696231 
 65   1   6.32342552  10.18533355   4.30568456 
 66   1  10.43299433   2.45580090   0.04223788 
 67   1  11.35666094   2.39167022   4.27998069 
 68   1  10.74172779   6.15659587   0.10353940 
 69   1  10.46392384   6.53146956   4.38978587 
 70   1  10.27357877  10.63437317   8.14904902 
 71   1  10.17906776  10.43788713   3.96912951 
